ITEM: TIMESTEP
0
ITEM: NUMBER OF ATOMS
42572
ITEM: BOX BOUNDS pp pp pp
0.0000000000000000e+00 7.5000000000000000e+01
0.0000000000000000e+00 7.5000000000000000e+01
0.0000000000000000e+00 7.5000000000000000e+01
ITEM: ATOMS id type x y z
1 1 49.4317 3.79006 73.5197
2 2 50.8642 3.56715 73.9839
3 1 50.768 3.02899 0.0201335
4 1 51.4644 3.2655 73.0243
5 3 51.8773 4.84163 74.4802
6 1 52.6799 4.19112 0.0314526
7 4 51.2302 5.67221 0.806045
8 5 51.3267 6.95417 0.739738
9 6 51.1732 4.81134 2.01394
10 7 51.4045 3.83426 2.03034
11 8 50.65 5.41448 3.38944
12 1 51.4905 6.06462 3.92689
13 2 49.2943 6.47152 3.37703
14 1 49.2244 6.63108 4.54981
15 1 49.7943 7.32272 2.71833
16 1 48.5395 5.71694 2.85872
17 2 50.4887 4.14952 4.54332
18 1 50.2036 4.83486 5.46931
19 1 49.6251 3.56205 3.9826
20 1 51.6018 3.74757 4.46085
21 9 52.8075 5.7942 73.3318
22 1 53.7941 5.73251 73.947
23 1 52.2613 5.31412 72.4218
24 3 53.3529 7.15476 72.4539
25 1 54.0978 6.63018 71.7251
26 4 54.4461 7.9686 73.4617
27 5 53.8282 9.07085 73.7031
28 6 55.6139 7.4205 74.1941
29 7 55.9038 6.45978 74.1814
30 8 56.4663 8.38278 0.130105
31 1 57.1945 9.0855 74.5021
32 2 55.7382 9.47185 1.24203
33 1 56.7406 9.84333 1.75757
34 1 55.2267 10.1702 0.431397
35 1 55.074 8.66654 1.80463
36 2 57.6276 7.35503 0.872177
37 1 58.2398 8.20582 1.42909
38 1 56.856 6.70704 1.49803
39 1 58.0725 6.90237 74.8698
40 9 52.1744 7.85699 71.3778
41 1 51.4392 8.17579 72.2203
42 1 52.2496 7.04719 70.5471
43 3 51.9682 9.20695 70.3784
44 1 52.6111 9.18714 69.413
45 4 50.4103 9.56834 69.8293
46 5 49.7724 10.0372 70.8456
47 6 50.3158 9.09365 68.4315
48 7 51.0449 8.70106 67.871
49 8 48.837 9.05994 67.8548
50 1 48.341 8.03772 68.216
51 2 47.7451 10.3007 68.3215
52 1 46.8339 9.94349 67.649
53 1 47.7335 10.0443 69.48
54 1 48.4063 11.2122 67.9456
55 2 49.0368 8.8249 66.1636
56 1 47.888 8.67031 65.9099
57 1 49.5342 9.87758 65.9381
58 1 49.7365 7.86886 66.2407
59 9 53.1171 10.4438 71.8172
60 1 52.1076 10.7568 72.2537
61 1 53.8785 9.67557 71.4258
62 3 54.1554 11.7183 72.2664
63 1 54.7109 11.0348 73.0587
64 4 54.6023 13.0588 73.3108
65 5 55.1065 14.2292 73.0399
66 6 54.543 13.506 74.7565
67 7 54.9899 12.6757 0.117584
68 8 54.2345 14.8322 0.616699
69 1 55.2229 15.495 0.554026
70 2 53.16 16.028 1.28886
71 1 53.9831 16.666 1.86539
72 1 52.4192 16.7151 0.649557
73 1 52.5393 15.1946 1.86868
74 2 54.6849 13.8937 1.99035
75 1 54.4964 14.7276 2.81366
76 1 53.8439 13.0644 1.88401
77 1 55.8342 13.7142 1.75202
78 9 53.9321 11.8601 70.4905
79 1 53.5824 12.8444 69.9283
80 1 54.0018 10.9799 69.7024
81 3 55.5952 12.0508 70.5783
82 1 55.9571 11.094 71.1514
83 4 54.9229 13.4363 71.3667
84 5 56.1607 13.2282 71.8443
85 6 53.4716 13.7966 71.9107
86 7 52.6321 13.2052 71.8368
87 8 52.9832 14.5759 73.3084
88 1 52.1655 15.3077 73.8467
89 2 53.9573 16.0573 73.2554
90 1 53.721 16.9385 74.0258
91 1 55.1311 15.9868 73.427
92 1 53.539 16.2254 72.1575
93 2 52.1726 13.2822 74.1881
94 1 52.1371 13.6352 0.327457
95 1 51.1365 13.3726 73.6075
96 1 52.778 12.278 74.0157
97 9 57.0137 12.1809 69.5684
98 1 57.3251 13.2652 69.8283
99 1 56.5555 11.5436 68.7155
100 3 58.4898 11.3915 69.7922
101 1 58.6188 10.3088 70.1896
102 4 58.6543 11.2099 68.1205
103 5 58.6708 12.4671 67.8373
104 6 58.5952 9.89725 67.4414
105 7 58.3576 9.01707 67.8524
106 8 58.9427 9.93183 65.8937
107 1 58.0084 10.3839 65.3078
108 2 60.2475 10.779 65.1646
109 1 60.0666 10.3915 64.058
110 1 59.8784 11.8702 65.4501
111 1 61.1109 10.2818 65.8088
112 2 58.8697 8.27817 65.4291
113 1 58.9415 8.45753 64.2587
114 1 59.8425 7.93116 66.0142
115 1 57.8065 8.04814 65.9027
116 9 59.8469 12.2717 71.3159
117 1 58.8311 12.1393 71.8377
118 1 60.7212 11.7799 70.7541
119 3 60.6431 13.3535 72.3303
120 1 60.7112 12.8002 73.3492
121 4 60.0294 14.9046 72.5906
122 5 60.3582 16.1384 72.4284
123 6 58.8416 14.4256 73.3254
124 7 58.5778 13.4923 73.5532
125 8 58.1487 15.6696 74.0182
126 1 58.8861 16.4145 74.5816
127 2 57.4666 16.7486 72.8648
128 1 56.7643 17.3442 73.6123
129 1 58.4648 17.3118 72.5635
130 1 57.0388 15.9155 72.1381
131 2 57.5954 14.7039 0.334954
132 1 57.3675 15.6306 1.04224
133 1 56.7588 14.1516 74.6984
134 1 58.5094 14.0333 0.68112
135 9 62.3368 13.6114 72.0312
136 1 62.6933 12.545 72.3093
137 1 62.2106 14.2814 71.0945
138 3 63.4356 14.5535 72.8992
139 1 64.3515 13.8504 73.0388
140 4 63.0575 14.9403 74.5009
141 5 63.2269 16.1826 74.7931
142 6 62.9361 13.6347 0.189558
143 7 63.0429 12.7306 74.7737
144 8 62.5933 13.6839 1.73988
145 1 63.5098 14.0533 2.40227
146 2 61.3596 14.7817 2.21602
147 1 61.3195 14.471 3.35934
148 1 61.9238 15.7773 1.9058
149 1 60.5374 14.349 1.48082
150 2 62.3163 12.0801 2.29426
151 1 62.1224 12.359 3.43249
152 1 61.3828 11.8487 1.60008
153 1 63.3773 11.6481 1.98668
154 9 64.0714 15.9553 72.0952
155 1 63.2392 16.7079 72.3708
156 1 65.2008 15.7669 72.2634
157 3 64.0222 16.0043 70.4086
158 1 64.6491 15.057 70.1525
159 4 62.6489 15.7416 69.4525
160 5 62.0207 16.8537 69.6246
161 6 62.5966 14.3689 68.8893
162 7 63.3886 13.7516 68.8563
163 8 61.2161 13.6843 68.4896
164 1 60.5291 13.6441 69.4648
165 2 60.5448 14.9886 67.5961
166 1 59.5851 14.4146 67.1977
167 1 60.4214 15.7314 68.513
168 1 61.4645 15.1329 66.8605
169 2 61.8145 12.136 68.0406
170 1 60.7794 11.6742 67.6945
171 1 62.5597 12.5068 67.1944
172 1 62.2433 11.8375 69.1055
173 9 65.382 17.6454 69.7822
174 1 66.0774 16.7315 69.8392
175 1 64.5629 18.1782 69.1726
176 3 66.4691 18.8962 70.0899
177 1 67.3748 18.6073 69.4208
178 4 66.8383 18.4785 71.6855
179 5 66.6621 19.3605 72.6061
180 6 67.3775 17.155 72.0757
181 7 67.6059 16.4104 71.443
182 8 67.8617 16.9485 73.5767
183 1 68.9642 17.4063 73.6293
184 2 66.7201 17.1675 74.8427
185 1 67.4847 17.0223 0.73825
186 1 66.381 18.2653 74.5493
187 1 66.0013 16.2707 74.553
188 2 68.3026 15.2849 73.6
189 1 68.6804 15.266 74.7247
190 1 67.2321 14.8454 73.3445
191 1 69.1104 15.3485 72.7327
192 9 66.4677 20.6385 70.0187
193 1 65.8508 20.7851 70.9931
194 1 66.329 20.7055 68.8668
195 3 67.4955 21.9715 70.2051
196 1 68.5956 21.6564 70.009
197 4 67.4751 22.2268 71.8754
198 5 66.8206 23.2651 72.2617
199 6 68.1541 21.2408 72.7512
200 7 68.6558 20.4376 72.419
201 8 68.1265 21.4431 74.3277
202 1 68.7935 22.3761 74.6468
203 2 66.6269 21.7429 0.11304
204 1 67.0339 21.6985 1.22623
205 1 66.4311 22.806 74.6241
206 1 66.0538 20.7985 74.68
207 2 69.0532 20.1799 0.0380848
208 1 68.9487 20.5323 1.16637
209 1 68.3655 19.2927 74.6603
210 1 70.0647 20.4086 74.4618
211 9 67.1364 23.1213 68.9606
212 1 66.1371 23.5707 69.3192
213 1 67.6662 22.6193 68.0674
214 3 68.2404 24.3058 69.4096
215 1 68.993 23.8646 70.174
216 4 68.6776 24.7402 67.8371
217 5 67.7945 25.5856 67.4276
218 6 70.0792 24.2637 67.7195
219 7 70.5841 23.8581 68.4885
220 8 70.8746 24.2557 66.3401
221 1 70.2 23.9968 65.3902
222 2 70.8909 25.9615 66.2127
223 1 71.1852 26.0314 65.065
224 1 69.7637 26.1654 66.5158
225 1 71.7269 26.1842 67.0242
226 2 72.5139 23.8169 66.0602
227 1 72.6372 24.3413 65.0034
228 1 72.9786 24.3418 67.0169
229 1 72.3436 22.6433 66.0915
230 9 67.4644 25.9132 70.7201
231 1 67.578 25.4012 71.7406
232 1 66.8265 26.1874 69.8059
233 3 69.0058 26.4915 70.3997
234 1 69.7669 25.9409 69.7165
235 4 69.7493 26.6857 71.9025
236 5 69.9504 27.9551 71.9468
237 6 70.4098 25.5167 72.5189
238 7 70.2127 24.5461 72.3947
239 8 71.3708 25.9951 73.6846
240 1 72.4075 26.3714 73.2354
241 2 70.9102 27.2482 74.7674
242 1 71.8374 27.1443 0.499808
243 1 70.9126 28.1264 73.9701
244 1 69.8722 26.7742 0.0893036
245 2 71.6596 24.4744 74.43
246 1 72.425 24.8666 0.24797
247 1 70.5364 24.2673 74.7534
248 1 72.0874 23.9278 73.4688
249 9 68.7228 27.9702 69.5378
250 1 68.4388 28.641 70.4348
251 1 68.2546 27.4966 68.5913
252 3 70.047 28.8091 68.9187
253 1 70.9306 28.1018 69.1892
254 4 70.3698 30.1357 69.9243
255 5 70.6135 31.2995 69.4262
256 6 70.9495 30.1329 71.2946
257 7 71.602 29.439 71.6171
258 8 70.7747 31.3739 72.2773
259 1 71.8109 31.9639 72.2727
260 2 69.6526 32.6487 72.0105
261 1 69.9994 33.3356 72.9134
262 1 70.0171 32.9208 70.9151
263 1 68.6726 31.9931 72.1399
264 2 70.8127 30.779 73.8919
265 1 70.8382 31.8352 74.4326
266 1 69.7847 30.1888 73.8425
267 1 71.827 30.1719 73.7885
268 9 69.8683 29.3947 67.285
269 1 70.5405 30.3333 67.4099
270 1 68.7416 29.1388 67.1715
271 3 70.3625 28.9538 65.7262
272 1 71.1 28.0943 65.9606
273 4 69.0663 28.1358 65.0062
274 5 68.8599 28.9948 64.0673
275 6 68.4825 26.8289 64.6026
276 7 69.054 26.0265 64.3949
277 8 66.9338 26.5285 64.366
278 1 66.2178 26.9598 65.2167
279 2 66.8526 27.1696 62.7744
280 1 65.7717 26.757 62.5098
281 1 66.9636 28.3095 63.0825
282 1 67.7999 26.5961 62.3477
283 2 66.7412 24.8192 64.3835
284 1 65.5997 24.7999 64.0608
285 1 67.5627 24.571 63.5643
286 1 67.0117 24.6634 65.5287
287 9 72.3172 29.5808 64.8712
288 1 72.3597 29.9178 65.9676
289 1 71.8082 29.0509 63.9895
290 3 73.9082 29.7275 64.3501
291 1 74.3734 28.7236 63.9918
292 4 74.4516 30.5394 65.7304
293 5 74.7701 31.7839 65.7756
294 6 0.316892 29.6222 66.5034
295 7 0.307235 28.625 66.4372
296 8 1.26224 30.3864 67.5256
297 1 2.31379 30.5244 66.984
298 2 0.75411 31.7687 68.4126
299 1 1.59396 31.7323 69.2489
300 1 0.880624 32.5591 67.5399
301 1 74.6657 31.3744 68.6667
302 2 1.65112 29.0724 68.5647
303 1 2.41412 29.6551 69.2628
304 1 0.54605 28.8847 68.9516
305 1 2.1052 28.358 67.7335
306 9 73.6931 30.5067 62.819
307 1 72.9307 31.315 63.1192
308 1 73.9935 29.7336 62.0187
309 3 0.165711 31.217 63.1995
310 1 0.847204 30.8268 64.0606
311 4 74.7444 32.7603 63.7532
312 5 0.420568 33.7414 63.2688
313 6 73.6672 33.333 64.6056
314 7 72.9044 32.7666 64.9397
315 8 73.7099 34.7885 65.2536
316 1 74.5546 35.0762 66.0424
317 2 73.7372 36.027 64.062
318 1 73.5018 36.9358 64.7872
319 1 74.8605 35.8621 63.7179
320 1 72.8612 35.5879 63.3936
321 2 72.3286 34.9003 66.2738
322 1 72.4399 36.0495 66.5491
323 1 71.5288 34.5862 65.4562
324 1 72.6791 34.0943 67.0703
325 9 1.48254 31.1866 62.0246
326 1 1.81743 32.1927 62.502
327 1 1.37108 30.0323 61.9269
328 3 2.70155 31.2742 60.8342
329 1 3.30512 30.2824 60.82
330 4 1.58732 32.0913 59.8666
331 5 1.6165 33.2828 60.3568
332 6 1.52493 30.8864 59.0121
333 7 1.74712 29.94 59.2359
334 8 0.704441 31.3231 57.7314
335 1 74.5503 31.2983 58.0345
336 2 1.04911 32.9034 57.153
337 1 0.354986 32.8416 56.1926
338 1 0.654765 33.4869 58.1081
339 1 2.21935 32.7522 57.022
340 2 0.976722 29.9894 56.6822
341 1 0.232563 30.3442 55.8296
342 1 2.14133 30.1651 56.5336
343 1 0.621047 29.1461 57.4373
344 9 4.00951 32.4956 62.1497
345 1 3.50361 33.4934 61.8764
346 1 3.87815 31.456 62.6449
347 3 5.5226 33.0829 62.6456
348 1 5.76442 32.1155 63.2891
349 4 5.18188 34.7638 62.6904
350 5 5.83173 35.3059 61.7184
351 6 5.14652 35.8185 63.7971
352 7 5.61434 35.2924 64.5277
353 8 4.88627 37.15 64.7245
354 1 5.96297 37.1798 65.2894
355 2 3.94903 37.9538 63.5244
356 1 3.93917 39.016 64.0512
357 1 4.66099 37.7384 62.6018
358 1 2.95966 37.3062 63.5793
359 2 4.12962 37.8403 66.1325
360 1 4.82996 38.7932 66.2629
361 1 3.00662 38.0985 65.8542
362 1 4.37433 36.9211 66.8463
363 9 6.89651 32.7183 61.6063
364 1 6.33623 31.7629 61.1932
365 1 7.73026 33.1378 60.8919
366 3 7.66092 33.1318 63.0756
367 1 8.05977 32.0852 63.4017
368 4 6.80638 33.5217 64.5077
369 5 7.63158 34.441 64.8793
370 6 5.44527 33.2278 65.1081
371 7 5.34705 32.2915 65.4818
372 8 4.05026 34.0244 65.3761
373 1 4.44209 34.6394 66.3363
374 2 2.77878 35.0131 64.7102
375 1 1.61683 34.768 64.8534
376 1 3.07459 35.9767 65.33
377 1 3.14221 34.8968 63.586
378 2 2.8114 33.1356 66.1777
379 1 2.35484 34.0433 66.7936
380 1 2.2742 32.7085 65.2113
381 1 3.5292 32.3975 66.7675
382 9 8.91761 34.161 62.3863
383 1 8.09484 34.9677 62.2041
384 1 9.70572 33.3235 62.5729
385 3 10.0119 34.9795 61.3573
386 1 11.1187 34.8075 61.6616
387 4 9.29264 35.3001 59.8645
388 5 8.14998 35.8523 59.6445
389 6 10.3653 34.592 59.1333
390 7 11.1963 34.1823 59.5079
391 8 10.108 34.4316 57.5751
392 1 9.43119 33.4607 57.4273
393 2 9.28914 35.6505 56.6835
394 1 9.36319 35.1178 55.6251
395 1 8.26662 35.5913 57.2803
396 1 10.0445 36.532 56.9313
397 2 11.5933 33.9152 56.88
398 1 11.1624 33.6754 55.8005
399 1 12.182 34.9322 57.0455
400 1 11.7883 33.0155 57.6279
401 9 9.29755 36.8219 62.3533
402 1 9.47374 36.4465 63.4226
403 1 8.5722 37.0729 61.4979
404 3 10.6904 37.6583 61.9389
405 1 11.1672 36.9842 61.1207
406 4 11.9718 37.8882 63.0141
407 5 12.5176 39.053 62.9842
408 6 12.3021 36.6056 63.6744
409 7 11.8092 35.7397 63.5855
410 8 13.538 36.6377 64.6713
411 1 14.5519 36.8486 64.0828
412 2 13.4134 37.8035 65.9279
413 1 14.3887 37.475 66.5176
414 1 13.4645 38.7615 65.2296
415 1 12.3562 37.4523 66.3355
416 2 13.7299 35.0168 65.2086
417 1 14.6784 35.2103 65.8954
418 1 12.6663 34.9156 65.7236
419 1 13.8922 34.5353 64.1365
420 9 10.5221 39.1271 61.034
421 1 9.48125 38.9369 60.5694
422 1 11.6291 39.2628 60.7289
423 3 10.2592 40.5163 61.9468
424 1 10.6503 40.3274 63.024
425 4 8.62592 40.8958 61.722
426 5 7.82875 41.9036 61.6512
427 6 8.25639 39.5982 62.3266
428 7 8.89984 38.9527 62.7293
429 8 6.71013 39.7545 62.6264
430 1 6.56912 40.8233 63.1416
431 2 5.5015 39.9231 61.411
432 1 4.54325 39.9164 62.1079
433 1 5.86997 40.9781 61.0116
434 1 5.77738 38.9404 60.8084
435 2 6.96139 38.5999 63.9012
436 1 6.10517 39.1651 64.5044
437 1 6.79327 37.684 63.1621
438 1 7.92143 38.4376 64.5986
439 9 10.4445 42.1079 61.2913
440 1 10.1025 42.7247 62.2034
441 1 10.2569 41.8653 60.1797
442 3 12.1171 42.2082 61.3777
443 1 12.6627 41.2163 61.1245
444 4 12.5832 43.3974 60.2736
445 5 12.555 44.5588 60.8299
446 6 12.8742 42.7961 58.954
447 7 12.8557 41.8248 58.7172
448 8 13.2414 43.8269 57.8034
449 1 12.2224 44.2187 57.3226
450 2 14.0992 45.2875 58.0915
451 1 14.119 45.6623 56.9652
452 1 13.309 45.7647 58.8353
453 1 15.0758 44.7839 58.5413
454 2 13.8594 42.9348 56.4702
455 1 13.8591 43.8295 55.6918
456 1 14.8856 42.6233 56.9798
457 1 12.9822 42.1379 56.4211
458 9 12.8702 42.4668 63.4448
459 1 11.7947 42.7392 63.7465
460 1 13.6223 41.6675 63.1053
461 3 13.792 43.4388 64.4604
462 1 13.6201 42.9277 65.4906
463 4 13.2194 45.0025 64.7467
464 5 13.3782 45.9866 63.9352
465 6 12.0488 45.103 65.651
466 7 11.6137 44.3286 66.1152
467 8 11.4067 46.5343 65.9069
468 1 12.0643 47.1662 66.6725
469 2 11.0834 47.6414 64.6324
470 1 10.5083 48.4494 65.2833
471 1 12.2128 47.8567 64.3445
472 1 10.4519 46.8923 63.9632
473 2 10.0304 46.2328 66.8929
474 1 9.74317 47.3677 67.0915
475 1 9.41501 45.6229 66.0834
476 1 10.6005 45.6376 67.7467
477 9 15.385 43.3848 63.7865
478 1 15.6867 42.3094 64.0666
479 1 15.2688 44.1417 62.9253
480 3 16.1934 44.2884 64.951
481 1 17.2689 43.8474 64.8927
482 4 15.618 43.4828 66.3284
483 5 15.0327 44.3113 67.1217
484 6 16.5669 42.5375 66.98
485 7 17.2838 42.0817 66.4364
486 8 16.6023 42.114 68.5179
487 1 17.181 42.5065 69.4867
488 2 15.0041 42.0743 69.1507
489 1 15.2702 41.5595 70.186
490 1 14.824 43.2467 69.1292
491 1 14.5352 41.4085 68.2884
492 2 17.3629 40.5722 68.4133
493 1 17.1703 40.2496 69.5401
494 1 16.664 40.1298 67.5644
495 1 18.44 40.9749 68.1191
496 9 15.938 45.9745 64.5967
497 1 15.5439 46.398 63.5833
498 1 15.6037 46.2485 65.6785
499 3 17.5748 45.9542 64.1846
500 1 18.61 45.6012 64.5673
501 4 17.3776 45.0069 62.796
502 5 17.2387 45.7627 61.7621
503 6 18.0537 43.6877 62.7132
504 7 18.8014 43.3995 63.3172
505 8 17.6603 42.6399 61.5821
506 1 16.5093 42.3296 61.5394
507 2 18.209 43.1847 60.0478
508 1 18.039 42.1647 59.466
509 1 17.4109 44.0525 59.9195
510 1 19.3093 43.4678 60.3905
511 2 18.4063 41.191 62.1308
512 1 18.0851 40.5091 61.2149
513 1 19.5162 41.6095 62.1636
514 1 17.7995 41.1028 63.1462
515 9 18.4944 47.8622 63.515
516 1 17.3681 48.0967 63.5839
517 1 19.3594 47.8862 62.7468
518 3 19.3475 48.1416 64.9452
519 1 20.0796 47.2313 64.908
520 4 18.6524 47.9471 66.4745
521 5 18.6883 48.8167 67.4221
522 6 18.7102 46.5963 67.083
523 7 19.2595 45.8332 66.7356
524 8 17.877 46.3259 68.4109
525 1 18.6644 46.1905 69.2935
526 2 16.416 47.1398 68.8082
527 1 16.1254 46.4848 69.7535
528 1 16.8992 48.2083 68.9847
529 1 15.8585 46.9304 67.7843
530 2 17.4985 44.7085 67.9696
531 1 16.6313 44.5457 68.7626
532 1 17.2012 44.9538 66.8481
533 1 18.5667 44.2401 68.1882
534 9 20.5755 49.3817 65.1565
535 1 21.0282 48.8475 66.0865
536 1 20.6762 49.5203 64.0042
537 3 21.3518 50.858 65.5182
538 1 22.3464 50.7065 64.9285
539 4 21.9275 50.8449 67.1113
540 5 21.8015 52.0287 67.6027
541 6 22.7808 49.7277 67.5863
542 7 23.0619 48.9446 67.0249
543 8 23.2858 49.6982 69.0937
544 1 24.2028 50.4407 69.2538
545 2 22.2018 50.1335 70.3546
546 1 22.9438 49.9309 71.2585
547 1 22.0313 51.2537 70.0033
548 1 21.3727 49.3234 70.106
549 2 24.0782 48.2013 69.3925
550 1 24.447 48.45 70.493
551 1 23.1244 47.5112 69.2536
552 1 24.8602 48.2812 68.5032
553 9 20.8092 52.3089 64.7334
554 1 20.9068 53.0318 65.6306
555 1 20.0294 51.831 64.025
556 9 21.8346 53.0429 63.617
557 1 22.6078 52.3271 63.1311
558 4 20.9119 53.5892 62.3123
559 5 20.4773 54.7865 62.5118
560 6 20.7207 52.615 61.2135
561 7 21.138 51.7051 61.1648
562 8 19.7686 53.0196 60.0056
563 1 18.6453 52.7624 60.3162
564 2 19.614 54.6273 59.4198
565 1 18.827 54.3915 58.5634
566 1 19.2222 55.1034 60.4337
567 1 20.7528 54.7733 59.1222
568 2 19.9829 51.8689 58.7467
569 1 19.0622 52.2119 58.0814
570 1 21.0741 52.2145 58.4318
571 1 19.8634 50.9021 59.4232
572 1 23.1811 54.6476 64.3402
573 10 55.502 19.5606 25.5279
574 11 54.7544 18.9451 25.49
575 11 56.2144 19.0929 25.0674
576 10 67.4684 28.4913 4.44184
577 11 67.4058 27.948 5.24187
578 11 68.0954 29.1899 4.68122
579 10 4.48493 34.5603 49.5243
580 11 5.10015 33.9063 49.8889
581 11 4.139 34.1368 48.7248
582 10 52.5031 52.564 52.4812
583 11 52.0938 51.8223 52.0104
584 11 52.8571 52.1626 53.2886
585 10 22.4491 13.5031 13.543
586 11 23.1492 14.1574 13.3985
587 11 22.6592 12.7929 12.9187
588 10 31.5405 7.46854 22.5428
589 11 30.633 7.2335 22.2968
590 11 31.7249 8.26584 22.0245
591 10 34.4773 19.5169 55.5604
592 11 33.9792 19.1381 54.8205
593 11 35.3811 19.593 55.2203
594 10 7.46423 55.507 73.4441
595 11 8.26334 54.9756 73.5789
596 11 7.30437 55.9137 74.3086
597 10 52.4426 61.5333 70.4928
598 11 53.1729 61.4588 69.8601
599 11 52.7382 61.013 71.2546
600 10 40.4748 16.4425 31.4775
601 11 41.159 16.5709 32.1517
602 11 40.2416 17.3425 31.2055
603 10 25.4433 25.5339 64.4903
604 11 26.3087 25.8815 64.7538
605 11 25.5909 24.5807 64.4004
606 10 64.4455 40.4617 43.5039
607 11 65.3596 40.1842 43.341
608 11 64.5056 41.424 43.5971
609 10 61.5343 49.5386 67.5423
610 11 61.5371 48.5714 67.4812
611 11 60.9181 49.8157 66.8481
612 10 67.5333 31.4614 52.543
613 11 67.5962 31.469 51.576
614 11 66.8747 32.1436 52.7407
615 10 67.4859 64.4367 40.5159
616 11 67.0124 65.2391 40.7828
617 11 68.2113 64.765 39.9643
618 10 67.5002 22.4396 37.5284
619 11 67.5038 22.6547 36.5835
620 11 67.4933 23.3039 37.9657
621 10 13.5474 19.4779 40.4585
622 11 12.5877 19.4779 40.3233
623 11 13.6607 19.8727 41.3358
624 10 43.4359 13.4816 43.4976
625 11 44.1774 13.13 42.9821
626 11 43.8403 14.1618 44.0564
627 10 40.4885 49.4344 4.49624
628 11 40.6147 49.9734 5.2916
629 11 40.5679 50.0683 3.76814
630 10 58.5076 37.5363 25.4445
631 11 58.4938 37.8459 26.3627
632 11 58.3857 36.5781 25.5182
633 10 19.5645 64.5076 34.5153
634 11 18.7928 64.784 35.0321
635 11 19.183 64.096 33.7257
636 10 28.5341 7.55734 1.49848
637 11 28.072 7.11837 0.76848
638 11 28.3865 6.97145 2.25564
639 10 4.52892 31.4412 19.4874
640 11 4.40101 31.8719 20.3461
641 11 4.13995 32.0617 18.8534
642 10 67.5385 52.4696 13.5453
643 11 67.1091 53.3357 13.6126
644 11 67.2801 52.1472 12.6691
645 10 58.5153 49.4623 64.5529
646 11 58.4984 50.4295 64.4947
647 11 58.2589 49.1694 63.6658
648 10 22.4574 49.45 4.48838
649 11 22.5274 50.2951 4.01944
650 11 23.1489 49.4991 5.16497
651 10 34.4336 4.50634 22.4974
652 11 35.1029 5.05933 22.0669
653 11 34.9509 3.84004 22.9737
654 10 31.4433 58.5096 61.4661
655 11 31.6913 57.7465 62.0095
656 11 32.2084 59.1005 61.5284
657 10 4.55884 1.52075 1.52372
658 11 4.35552 1.19443 0.634149
659 11 3.71061 1.47629 1.98943
660 10 22.5517 37.459 31.5102
661 11 21.6141 37.2941 31.6918
662 11 22.5659 38.3569 31.1469
663 10 34.5654 19.512 1.49423
664 11 34.1114 18.656 1.47617
665 11 33.8504 20.1542 1.61543
666 10 40.5401 4.45917 34.4656
667 11 39.8304 4.22031 35.0808
668 11 40.5339 5.42783 34.465
669 10 25.5022 1.49952 52.4333
670 11 25.4864 0.740263 53.0353
671 11 25.4792 2.26733 53.0235
672 10 58.458 55.4564 7.47188
673 11 58.8544 56.2456 7.07288
674 11 58.812 55.4465 8.37353
675 10 55.547 40.5414 40.523
676 11 54.604 40.5268 40.7459
677 11 55.6494 39.8165 39.8886
678 10 22.4907 55.4577 55.5507
679 11 23.2703 56.0018 55.3632
680 11 21.8776 55.6704 54.8315
681 10 58.5164 13.5317 37.5564
682 11 57.7575 12.9502 37.398
683 11 58.9818 13.5466 36.707
684 10 37.5042 37.5457 22.4515
685 11 37.9948 36.7138 22.5319
686 11 36.9387 37.5613 23.2378
687 10 43.4685 34.5132 34.5573
688 11 44.4138 34.3495 34.4203
689 11 43.0869 34.4409 33.6699
690 10 46.444 40.4781 13.529
691 11 47.3464 40.1447 13.6457
692 11 46.5421 41.2029 12.8939
693 10 61.5282 7.44078 7.51231
694 11 60.6282 7.7292 7.72655
695 11 61.9242 8.21081 7.07802
696 10 25.5285 22.4794 34.4433
697 11 25.1824 21.9372 35.1681
698 11 25.3645 23.3894 34.732
699 10 34.5243 13.4958 61.562
700 11 33.6638 13.8416 61.2808
701 11 34.9499 13.2249 60.7351
702 10 4.46028 46.5508 37.4829
703 11 4.31411 45.8841 38.1708
704 11 5.31641 46.3088 37.0998
705 10 49.4837 4.4696 40.5571
706 11 49.6496 5.41287 40.4093
707 11 49.609 4.06971 39.6838
708 10 58.4427 28.5175 40.4705
709 11 58.5627 28.0601 41.3164
710 11 59.346 28.6623 40.152
711 10 46.5535 64.5243 34.5316
712 11 46.3158 63.596 34.387
713 11 45.8343 65.0188 34.1115
714 10 67.4664 28.4784 16.4465
715 11 67.3644 28.1975 17.3684
716 11 68.1682 29.1453 16.4808
717 10 52.4399 52.4862 46.4744
718 11 52.8496 52.1138 47.2698
719 11 53.1037 53.1057 46.1368
720 10 7.45076 70.4867 10.457
721 11 7.56427 70.147 11.3574
722 11 8.21736 71.0641 10.3257
723 10 64.4744 67.5605 46.488
724 11 64.6635 67.1525 47.3464
725 11 64.7421 66.8877 45.8445
726 10 46.4655 55.4489 73.5257
727 11 47.4224 55.5125 73.3864
728 11 46.1251 56.2978 73.2064
729 10 67.5352 10.5442 34.4645
730 11 66.9454 9.84928 34.1354
731 11 67.4961 10.4484 35.4277
732 10 67.4927 16.5398 58.4469
733 11 67.6515 16.7965 59.3678
734 11 67.4643 15.5719 58.4747
735 10 52.4539 67.5434 37.5212
736 11 52.6597 67.2889 36.609
737 11 53.0722 67.0228 38.0551
738 10 49.5418 58.5045 7.55184
739 11 49.7594 58.5116 6.60753
740 11 48.5772 58.4172 7.5696
741 10 52.4495 52.5018 19.5436
742 11 53.4 52.5314 19.7301
743 11 52.4017 52.4398 18.5781
744 10 28.5273 52.441 64.4849
745 11 27.5973 52.6381 64.6733
746 11 28.9701 53.2986 64.5671
747 10 73.5004 31.5385 25.4455
748 11 72.8254 31.494 26.1394
749 11 74.1676 30.8945 25.7256
750 10 22.4922 16.5175 34.5639
751 11 22.8031 15.6702 34.2112
752 11 22.3203 17.0515 33.7742
753 10 1.46901 55.4523 67.5349
754 11 1.32679 55.7032 66.6097
755 11 2.16509 56.0544 67.8369
756 10 67.5626 55.5077 1.52177
757 11 66.8879 54.8939 1.84926
758 11 67.1181 55.9843 0.805119
759 10 58.4741 46.48 31.4418
760 11 58.1298 47.153 32.0482
761 11 59.2808 46.1644 31.8753
762 10 40.5622 16.5222 73.4902
763 11 40.146 15.7307 73.1168
764 11 39.8672 16.9164 74.0379
765 10 16.4635 70.4921 1.55532
766 11 17.2973 70.9756 1.45444
767 11 16.282 70.1498 0.667507
768 10 67.4474 16.5312 4.5268
769 11 67.6746 16.4431 3.58884
770 11 68.1597 16.0617 4.98575
771 10 31.4801 28.5611 58.5178
772 11 31.2864 27.7188 58.9562
773 11 32.03 28.3106 57.7608
774 10 13.4927 52.5203 43.5632
775 11 14.2338 52.0306 43.1756
776 11 12.8824 52.6477 42.8218
777 10 22.4358 7.48239 64.5045
778 11 23.0197 7.79544 65.2118
779 11 22.9997 7.48402 63.7168
780 10 1.51572 67.5263 10.5593
781 11 1.47973 66.5899 10.3121
782 11 1.27074 67.993 9.74661
783 10 1.5541 13.4612 52.5047
784 11 1.26276 13.99 51.7466
785 11 0.878603 13.626 53.1791
786 10 58.4494 19.5419 52.4884
787 11 59.3992 19.7334 52.4694
788 11 58.4042 18.6012 52.7152
789 10 46.5226 58.5331 73.5534
790 11 45.8622 58.8244 72.9068
791 11 46.7786 57.6508 73.246
792 10 49.4457 31.5109 46.4627
793 11 49.4883 31.1715 47.3694
794 11 50.373 31.6558 46.2227
795 10 55.4609 61.5004 37.4459
796 11 55.3269 61.017 38.275
797 11 56.2931 61.9767 37.5839
798 10 49.5089 67.4343 1.49195
799 11 50.1709 68.1018 1.7273
800 11 48.688 67.9403 1.4004
801 10 25.5205 13.5618 37.4856
802 11 25.3366 12.8354 36.8711
803 11 25.3378 13.1829 38.3581
804 10 22.4865 31.5446 34.4522
805 11 22.3012 30.5934 34.451
806 11 22.9131 31.6994 35.308
807 10 28.4855 43.4371 43.4831
808 11 28.9471 43.7511 44.2752
809 11 28.2826 44.2477 42.9931
810 10 10.5605 19.5263 70.4898
811 11 10.1808 19.2073 71.3224
812 11 9.85905 19.3752 69.8391
813 10 52.4448 7.52553 10.5275
814 11 53.153 7.99669 10.0631
815 11 52.7232 6.59811 10.5007
816 10 52.4506 19.4755 73.4624
817 11 53.3845 19.2169 73.4625
818 11 52.3997 20.1712 74.1346
819 10 43.5654 1.48691 7.50238
820 11 43.1149 2.18907 7.00927
821 11 42.847 1.01862 7.95288
822 10 22.5053 43.4642 73.556
823 11 22.3068 43.1475 72.6619
824 11 22.6085 44.4213 73.4484
825 10 25.506 31.4777 19.5626
826 11 26.1751 31.9217 19.02
827 11 24.7289 31.4324 18.9861
828 10 37.5482 13.4654 61.5305
829 11 36.979 14.1537 61.9064
830 11 37.2553 13.3958 60.6098
831 10 70.542 58.4487 49.4927
832 11 70.6244 59.2072 50.0902
833 11 69.7082 58.6072 49.0259
834 10 22.4466 55.5002 4.54008
835 11 22.5156 55.844 3.63667
836 11 23.3314 55.1531 4.72715
837 10 73.5527 58.4601 25.4909
838 11 72.9507 58.4906 26.2498
839 11 73.2129 59.1434 24.8943
840 10 19.4652 64.4467 73.5201
841 11 19.195 65.3772 73.5372
842 11 20.3573 64.4684 73.1432
843 10 34.4377 22.5191 22.4856
844 11 34.7237 21.8442 23.1195
845 11 35.2654 22.8531 22.1092
846 10 73.5433 1.48995 16.4502
847 11 73.6837 1.35431 17.3994
848 11 72.6292 1.80513 16.391
849 10 67.5109 22.4381 13.4777
850 11 67.7625 22.8165 14.3336
851 11 67.0646 23.1666 13.0211
852 10 7.49321 64.4792 1.56306
853 11 8.3101 64.7097 1.09536
854 11 6.79768 64.6202 0.903748
855 10 46.4404 40.5278 7.51118
856 11 46.6864 39.5933 7.58448
857 11 47.2602 40.9655 7.23803
858 10 58.4486 37.4824 13.5388
859 11 58.5693 38.3088 13.0473
860 11 59.2462 36.9709 13.3371
861 10 19.5166 22.4719 46.4418
862 11 18.6324 22.5701 46.8262
863 11 20.1037 22.8762 47.0977
864 10 31.4478 34.4893 58.5402
865 11 32.3679 34.6623 58.7903
866 11 31.4605 34.508 57.5718
867 10 64.4967 52.4937 67.5664
868 11 64.0422 51.9649 66.8934
869 11 65.0102 53.1351 67.0533
870 10 73.4421 61.4805 22.5269
871 11 74.3395 61.2393 22.802
872 11 73.5791 62.0705 21.771
873 10 1.45346 25.4625 4.52975
874 11 2.02312 26.1363 4.93057
875 11 1.71564 25.4582 3.59723
876 10 70.4631 49.5546 19.5105
877 11 70.9249 49.0113 20.1668
878 11 70.6606 49.1217 18.6667
879 10 46.4623 16.4769 58.4501
880 11 47.351 16.8598 58.3985
881 11 46.248 16.5076 59.3942
882 10 73.5459 25.5328 67.4644
883 11 73.6775 25.0091 68.2691
884 11 72.5939 25.4701 67.2967
885 10 64.4655 34.4429 37.4974
886 11 65.3657 34.5817 37.8285
887 11 64.1817 35.3244 37.2131
888 10 34.4842 61.4765 7.43956
889 11 34.5172 60.992 8.27817
890 11 34.7341 62.3807 7.68109
891 10 37.4605 19.4469 1.4916
892 11 37.4349 20.1026 2.20465
893 11 38.1919 19.7409 0.928653
894 10 7.47196 7.51092 37.5596
895 11 8.0278 8.11305 37.0422
896 11 7.41727 6.7136 37.0122
897 10 46.5136 22.4349 43.5057
898 11 46.8488 23.0588 42.8443
899 11 45.9348 22.9742 44.0647
900 10 43.4718 67.56 43.5075
901 11 44.0421 67.2549 42.7859
902 11 43.4057 66.7925 44.0948
903 10 1.43488 43.4937 73.5132
904 11 2.1246 42.8159 73.576
905 11 1.90894 44.2837 73.214
906 10 7.52822 10.5518 7.53117
907 11 6.58493 10.3438 7.4533
908 11 7.9672 9.83356 7.05188
909 10 10.4838 43.4627 40.4471
910 11 11.3644 43.7636 40.7175
911 11 9.89335 43.8282 41.1225
912 10 61.435 67.5112 40.4898
913 11 61.8672 66.6755 40.7219
914 11 62.1644 68.1468 40.4407
915 10 10.5293 25.4514 52.4649
916 11 10.6109 26.4091 52.3413
917 11 9.92398 25.3625 53.2159
918 10 58.4885 7.55973 40.4725
919 11 58.1396 7.20903 41.3059
920 11 59.0427 6.84284 40.1301
921 10 19.5315 43.5077 67.5583
922 11 18.5773 43.4519 67.3987
923 11 19.9221 43.4265 66.6756
924 10 1.55255 1.51773 70.4629
925 11 0.752505 1.04992 70.1796
926 11 1.41333 1.66859 71.4096
927 10 25.5353 13.5483 67.4703
928 11 24.6925 13.6291 67.9419
929 11 25.7475 12.6049 67.5292
930 10 16.4372 52.4894 10.4801
931 11 17.1216 53.0167 10.0411
932 11 16.8751 52.1521 11.2755
933 10 43.4899 52.4364 70.4826
934 11 42.8657 53.1759 70.4305
935 11 44.295 52.8341 70.8459
936 10 52.4508 73.4655 67.471
937 11 52.4071 74.0094 68.2719
938 11 53.3742 73.5389 67.1877
939 10 34.5095 58.487 49.4352
940 11 34.0779 57.9278 50.0987
941 11 34.7706 59.2782 49.9294
942 10 10.5191 37.4753 25.441
943 11 9.61654 37.6172 25.764
944 11 11.0797 37.7748 26.1721
945 10 61.537 22.5034 55.5554
946 11 61.841 22.4656 54.636
947 11 60.5712 22.4802 55.4843
948 10 31.5533 10.5279 19.5289
949 11 30.6324 10.5455 19.8304
950 11 31.5223 10.011 18.7103
951 10 70.5312 4.47377 31.4471
952 11 70.3219 4.04423 32.2903
953 11 70.1835 5.37216 31.5489
954 10 22.5254 67.4648 1.44928
955 11 22.996 67.8454 2.20611
956 11 21.601 67.7129 1.59895
957 10 16.5535 37.4715 13.528
958 11 15.7737 37.8411 13.9692
959 11 16.3777 37.6105 12.5856
960 10 13.4492 37.5369 73.5226
961 11 14.3966 37.7372 73.5616
962 11 13.4094 36.6768 73.0789
963 10 16.5005 31.4945 58.4335
964 11 17.119 31.9843 58.9962
965 11 15.8735 31.103 59.0595
966 10 73.4927 64.5477 4.45388
967 11 73.5546 64.6518 5.41537
968 11 73.5611 63.5912 4.31666
969 10 46.5215 73.5193 25.5602
970 11 45.9766 72.7487 25.34
971 11 46.6819 73.9451 24.705
972 10 31.5352 7.54822 70.5298
973 11 31.233 7.51225 69.6098
974 11 31.2083 6.72243 70.9166
975 10 58.4537 67.5242 25.5415
976 11 59.3005 67.111 25.7679
977 11 58.4343 67.5043 24.5732
978 10 43.4627 10.4761 4.45007
979 11 43.3094 10.3907 5.40313
980 11 44.282 10.9894 4.38939
981 10 64.5407 64.5482 64.4782
982 11 64.2767 63.7367 64.0189
983 11 64.077 64.4986 65.3272
984 10 28.4471 34.5406 64.4975
985 11 29.2376 34.6247 65.0516
986 11 28.6027 33.7315 63.9881
987 10 37.5062 31.5412 46.4478
988 11 37.403 31.7737 47.383
989 11 37.4992 30.5725 46.4449
990 10 16.5619 28.5083 43.4765